LAMMPS data file via write_data, version 24 Jan 2020, timestep = 37100000

3996 atoms
9 atom types
4230 bonds
11 bond types
7122 angles
16 angle types
10338 dihedrals
20 dihedral types
3024 impropers
10 improper types

-2.5534439202245385e+00 3.2452806374319607e+01 xlo xhi
-2.0605115820370234e+00 3.2945738690064580e+01 ylo yhi
-5.3229271193405632e+00 2.9683323141342150e+01 zlo zhi

Masses

1 15.9994
2 12.0112
3 12.0112
4 12.0112
5 1.00797
6 12.011
7 15.9994
8 1.00797
9 15.9994

Pair Coeffs # lj/class2/coul/long

1 0.24 3.32
2 0.064 4.01
3 0.054 4.01
4 0.054 4.01
5 0.02 2.995
6 0.064 3.9
7 0.257 3.2
8 0.013 1.098
9 0.24 3.535

Bond Coeffs # class2

1 1.3828 387.912 -715.919 660.244
2 1.3398 391.331 -788.566 1212.38
3 1.417 470.836 -627.618 1327.63
4 1.0982 372.825 -803.453 894.317
5 1.501 321.902 -521.821 572.163
6 1.53 299.67 -501.77 679.81
7 1.101 345 -691.89 844.6
8 1.1953 854.29 -1922.34 2301.68
9 1.4457 326.727 -608.531 689.033
10 0.965 532.506 -1282.9 2004.77
11 1.3768 428.88 -738.235 1114.97

Angle Coeffs # class2

1 115.07 47.1131 -32.5592 13.1257
2 118.9 61.0226 -34.9931 0
3 120.14 33.0391 -14.7807 0
4 117.94 35.1558 -12.4682 0
5 120.05 44.7148 -22.7352 0
6 108.4 43.9594 -8.3924 -9.3379
7 111 44.3234 -9.4454 0
8 112.67 39.516 -7.443 -9.5583
9 110.77 41.453 -10.604 5.129
10 107.66 39.641 -12.921 -2.4318
11 120.051 97.3782 -26.5619 0
12 109.493 137.911 -39.8755 59.0768
13 113.62 57.9274 -17.1312 60
14 107.688 70.4801 -10.3498 0
15 108.19 53.125 -8.5016 0
16 123.42 73.6781 -21.6787 0

BondBond Coeffs

1 69.5999 1.3828 1.3398
2 68.2856 1.417 1.417
3 30.3889 1.3828 1.417
4 1.0795 1.417 1.0982
5 12.0676 1.417 1.501
6 0 1.501 1.53
7 0 1.501 1.501
8 0 1.53 1.53
9 3.3872 1.53 1.101
10 5.3316 1.101 1.101
11 122.497 1.3398 1.1953
12 83.7102 1.3398 1.3398
13 42.0941 1.4457 1.3398
14 5.6454 1.4457 1.101
15 20.6577 1.3768 0.965
16 48.4754 1.417 1.3768

BondAngle Coeffs

1 39.1599 64.3958 1.3828 1.3398
2 28.8708 28.8708 1.417 1.417
3 83.6766 49.6672 1.3828 1.417
4 20.0033 24.2183 1.417 1.0982
5 31.0771 47.0579 1.417 1.501
6 0 0 1.501 1.53
7 0 0 1.501 1.501
8 8.016 8.016 1.53 1.53
9 20.754 11.421 1.53 1.101
10 18.103 18.103 1.101 1.101
11 81.8533 73.6008 1.3398 1.1953
12 102.646 102.646 1.3398 1.3398
13 32.4816 53.592 1.4457 1.3398
14 57.4975 8.6864 1.4457 1.101
15 53.8614 23.9224 1.3768 0.965
16 58.479 107.681 1.417 1.3768

Dihedral Coeffs # class2

1 -2.4045 0 0.4561 0 0 0
2 -3.2773 0 1.3788 0 0 0
3 -3.4253 0 2.3292 0 0 0
4 8.3667 0 1.1932 0 0 0
5 0 0 3.9661 0 0 0
6 0 0 4.6282 0 0 0
7 0 0 2.167 0 0 0
8 0 0 1.8769 0 0 0
9 0 0 4.4072 0 0 0
10 0 0 1.559 0 0 0
11 -0.2802 0 -0.0678 0 -0.0122 0
12 -0.2802 0 -0.0678 0 -0.0122 0
13 -0.0228 0 0.028 0 -0.1863 0
14 0 0 0.0316 0 -0.1681 0
15 -4.0149 0 1.8643 0 0 0
16 -4.2342 0 1.8099 0 0 0
17 0 0 0 0 -0.1932 0
18 -0.69 0 0.5097 0 0.0095 0
19 0 0 4.8498 0 0 0
20 0 0 1.7234 0 0 0

AngleAngleTorsion Coeffs

1 0 115.07 120.14
2 0 115.07 109.493
3 0 115.07 120.051
4 0 118.9 118.9
5 -4.8141 118.9 117.94
6 0 120.14 118.9
7 0 120.14 117.94
8 0.3598 117.94 117.94
9 -14.4097 118.9 120.05
10 4.4444 120.05 117.94
11 0 120.05 108.4
12 0 120.05 111
13 0 108.4 110.77
14 -16.164 112.67 110.77
15 0 113.62 109.493
16 0 113.62 120.051
17 0 113.62 107.688
18 -4.6072 123.42 108.19
19 -21.0247 118.9 123.42
20 4.2296 117.94 123.42

EndBondTorsion Coeffs

1 0 0 0 0 0 0 1.3398 1.417
2 0 0 0 0 0 0 1.3828 1.3398
3 0 0 0 0 0 0 1.3828 1.1953
4 -0.1185 6.3204 0 -0.1185 6.3204 0 1.417 1.417
5 0 -6.8958 0 0 -0.4669 0 1.417 1.0982
6 0 0 0 0 0 0 1.3828 1.417
7 0 0 0 0 0 0 1.3828 1.0982
8 0 -0.689 0 0 -0.689 0 1.0982 1.0982
9 0 -0.6918 0 0 0.2421 0 1.417 1.501
10 0 -1.797 0 0 -0.4879 0 1.501 1.0982
11 0 0 0 0 0 0 1.417 1.53
12 0 0 0 0 0 0 1.417 1.501
13 0 0 0 0 0 0 1.501 1.101
14 0.2486 0.2422 -0.0925 0.0814 0.0591 0.2219 1.53 1.101
15 0 0 0 0 0 0 1.4457 1.3398
16 0 0 0 0 0 0 1.4457 1.1953
17 0 0 0 0 0 0 1.3398 1.101
18 0.9 -1.3456 1.19 3.4132 0.5873 -0.1323 1.417 0.965
19 0 0.2655 0 0 4.8905 0 1.417 1.3768
20 0 -1.5867 0 0 4.2641 0 1.0982 1.3768

MiddleBondTorsion Coeffs

1 0 2.265 0 1.3828
2 0 6.3562 0 1.3398
3 0 4.9491 0 1.3398
4 27.5989 -2.312 0 1.417
5 0 -1.1521 0 1.417
6 0 0 0 1.417
7 0 3.8762 0 1.417
8 0 4.8228 0 1.417
9 0 9.1792 0 1.417
10 0 3.9421 0 1.417
11 0 0 0 1.501
12 0 0 0 1.501
13 0 0 0 1.53
14 -14.879 -3.6581 -0.3138 1.53
15 0 6.4736 0 1.3398
16 0 4.6748 0 1.3398
17 0 0 0 1.4457
18 1.158 3.2697 3.5132 1.3768
19 0 4.8255 0 1.417
20 0 5.5432 0 1.417

BondBond13 Coeffs

1 0 1.3398 1.417
2 0 1.3828 1.3398
3 0 1.3828 1.1953
4 53 1.417 1.417
5 -6.2741 1.417 1.0982
6 0 1.3828 1.417
7 0 1.3828 1.0982
8 -1.7077 1.0982 1.0982
9 2.5085 1.417 1.501
10 0.8743 1.501 1.0982
11 0 1.417 1.53
12 0 1.417 1.501
13 0 1.501 1.101
14 0 1.53 1.101
15 0 1.4457 1.3398
16 0 1.4457 1.1953
17 0 1.3398 1.101
18 1.159 1.417 0.965
19 -2.2436 1.417 1.3768
20 2.0517 1.0982 1.3768

AngleTorsion Coeffs

1 0 0 0 0 0 0 115.07 120.14
2 0 0 0 0 0 0 115.07 109.493
3 0 0 0 0 0 0 115.07 120.051
4 1.9767 1.0239 0 1.9767 1.0239 0 118.9 118.9
5 0 2.5014 0 0 2.7147 0 118.9 117.94
6 0 0 0 0 0 0 120.14 118.9
7 0 0 0 0 0 0 120.14 117.94
8 0 2.4501 0 0 2.4501 0 117.94 117.94
9 0 3.8987 0 0 -4.4683 0 118.9 120.05
10 0 -0.1242 0 0 3.4601 0 120.05 117.94
11 0 0 0 0 0 0 120.05 108.4
12 0 0 0 0 0 0 120.05 111
13 0 0 0 0 0 0 108.4 110.77
14 -0.2454 0 -0.1136 0.3113 0.4516 -0.1988 112.67 110.77
15 0 0 0 0 0 0 113.62 109.493
16 0 0 0 0 0 0 113.62 120.051
17 0 0 0 0 0 0 113.62 107.688
18 -5.136 -1.0122 0 4.6852 0.023 -0.598 123.42 108.19
19 0 10.0155 0 0 1.7404 0 118.9 123.42
20 0 1.8729 0 0 2.5706 0 117.94 123.42

Improper Coeffs # class2

1 19.8126 0
2 4.8912 0
3 7.8153 0
4 51.6374 0
5 13.0421 0
6 0 0
7 0 0
8 0 0
9 0 0
10 0 0

AngleAngle Coeffs

1 0 0 0 120.14 118.9 120.14
2 0 0 0 118.9 117.94 117.94
3 0 0 0 118.9 120.05 120.05
4 0 0 0 109.493 120.051 120.051
5 0 0 0 118.9 123.42 123.42
6 0 0 0 108.4 112.67 108.4
7 0 0 0 111 108.4 108.4
8 0.2738 -0.4825 0.2738 110.77 107.66 110.77
9 -0.3157 -0.3157 -0.3157 107.66 107.66 107.66
10 0 0 0 107.688 107.66 107.688

Atoms # full

3570 108 2 -1.2680000000000000e-01 8.3998691188263752e-01 1.5425357570255351e+00 -2.0918486558792209e+00 0 0 0
3593 108 5 1.2680000000000000e-01 8.7577406199285512e-01 7.7719691466518048e-01 -1.2666172705899170e+00 0 0 0
3572 108 2 -1.2680000000000000e-01 1.0958742887610211e+00 1.1568159995406750e+00 -3.3960957535417133e+00 0 0 0
3568 108 2 1.7000000000000001e-01 4.0101509207644570e-01 2.8665021056063709e+00 -1.8745604975281316e+00 0 0 0
1776 54 4 -1.5900000000000000e-01 -3.8409825011939880e-01 3.6172614467380848e-01 1.9343999491118578e+00 1 0 1
1774 54 3 0.0000000000000000e+00 -1.6347619356160346e+00 -4.9235049277147347e-01 1.9902666968210532e+00 1 0 1
1781 54 5 5.2999999999999999e-02 -6.7510896418841027e-01 1.3963535448318152e+00 1.6704570326545773e+00 1 0 1
3595 108 5 1.2680000000000000e-01 1.4935108405257878e+00 1.3691727922431163e-01 -3.5255989276766808e+00 0 0 0
3571 108 2 -1.2680000000000000e-01 4.8790562621820177e-01 3.2805690296093020e+00 -4.2079035366461381e+00 0 0 0
1783 54 5 5.2999999999999999e-02 1.5076840733026531e-01 3.2878787202418769e-01 2.8859291411691581e+00 1 0 1
3573 108 2 0.0000000000000000e+00 1.0434769308997329e+00 2.0458260808966178e+00 -4.4958558882516577e+00 0 0 0
1777 54 2 0.0000000000000000e+00 -2.0496810490758581e+00 -7.7751571925385465e-01 5.2854691652200902e-01 1 0 1
3622 109 1 -2.7000000000000002e-01 2.2377733197997105e+00 3.7196279707904254e+00 -3.4159293547014519e-01 0 0 0
1785 54 2 -1.2680000000000000e-01 -1.9959836113726093e+00 2.4463778490720101e-01 -4.2008307922180371e-01 1 0 1
1797 54 5 1.2680000000000000e-01 -1.8809894091909074e+00 1.2624204971684820e+00 -5.7097107382678071e-02 1 0 1
1782 54 5 5.2999999999999999e-02 4.0318597734733430e-01 -1.1703833023716914e-02 1.2379032376628609e+00 1 0 1
3567 108 1 -2.7000000000000002e-01 4.2571308037294919e-02 3.3483418277205090e+00 -6.5742099466126691e-01 0 0 0
3569 108 2 -1.2680000000000000e-01 2.0873131499732622e-01 3.6923830825479418e+00 -2.9593418021676894e+00 0 0 0
3623 109 6 6.9999999999999996e-01 1.0222293693365438e+00 3.5989596380421545e+00 2.2807052361079730e-01 0 0 0
3624 109 7 -5.0000000000000000e-01 7.4655731936271996e-01 3.8376724853714266e+00 1.3759243828595764e+00 0 0 0
3594 108 5 1.2680000000000000e-01 3.6275926550125126e-01 3.9553750632680535e+00 -5.0576884236132873e+00 0 0 0
2691 81 5 1.2680000000000000e-01 1.1366278532321592e+01 1.1199305358292655e+01 -2.1039635655509459e+00 -1 0 0
1964 59 5 1.2680000000000000e-01 2.8901713930300814e+00 1.1321752174081450e+00 2.9064522709618381e+00 0 0 1
3621 109 2 1.7000000000000001e-01 3.3075381585413388e+00 3.5241638793806982e+00 5.3929099897791932e-01 0 0 0
2700 81 5 5.2999999999999999e-02 1.0625977668668952e+01 6.3013182826912963e+00 -5.0091069603859442e+00 -1 0 0
1799 54 5 1.2680000000000000e-01 -2.3399011387305966e+00 9.0883123047705450e-01 -2.3086282317940410e+00 1 0 1
1787 54 2 -1.2680000000000000e-01 -2.3716259362977423e+00 9.7716103285896416e-03 -1.7107380486768105e+00 1 0 1
2726 82 6 6.9999999999999996e-01 9.2549621517799885e+00 1.1676618941332553e+01 2.7473030670198102e+00 -1 0 0
3631 109 5 1.2680000000000000e-01 3.7424404880827820e+00 1.4577919028444848e+00 -2.3268549570943031e-01 0 0 0
3619 109 2 -1.2680000000000000e-01 3.9728158493660186e+00 2.2993716811477172e+00 4.8560465643577178e-01 0 0 0
3610 109 2 0.0000000000000000e+00 5.5243258656931165e+00 3.0164880143545374e+00 2.3216097202438002e+00 0 0 0
3617 109 2 -1.2680000000000000e-01 5.0578524176208433e+00 2.0818170704714478e+00 1.3736385135710780e+00 0 0 0
3629 109 5 1.2680000000000000e-01 5.6148710370199240e+00 1.1775797532010217e+00 1.2337863135412910e+00 0 0 0
3606 109 2 0.0000000000000000e+00 8.0622560249436219e+00 3.1850972892355256e+00 2.7466195410285845e+00 0 0 0
3209 97 5 5.2999999999999999e-02 7.1458882180004917e+00 1.7200955795309576e+00 -3.4225882462539192e+00 1 0 1
3206 97 4 -1.5900000000000000e-01 6.8454409833061529e+00 2.6176116506687985e+00 -3.8957565149659503e+00 1 0 1
3210 97 5 5.2999999999999999e-02 5.7602264113961095e+00 2.6788960987534494e+00 -3.9117147097019700e+00 1 0 1
3605 109 2 -1.2680000000000000e-01 8.3928674032611070e+00 2.9717617593755254e+00 1.4400693363388808e+00 0 0 0
3628 109 5 1.2680000000000000e-01 7.5952072414002956e+00 2.6985113488724424e+00 7.3331305156267579e-01 0 0 0
101 3 5 1.2680000000000000e-01 8.0987383947466682e+00 -9.7156100164311820e-01 -3.2026757060623208e+00 0 0 0
82 3 2 0.0000000000000000e+00 8.5192962664059841e+00 -1.3452490931745906e+00 -1.0867484824556131e+00 0 0 0
3616 109 5 5.2999999999999999e-02 6.9347576269614706e+00 5.0714030240102215e-01 2.6804920403135615e+00 0 0 0
92 3 2 -1.2680000000000000e-01 6.4906963878485193e+00 -1.4663676008908506e+00 2.1755125588924515e-01 0 0 0
103 3 5 1.2680000000000000e-01 5.7277894660450670e+00 -7.5001666268684697e-01 -2.9268671713231322e+00 0 0 0
3211 97 5 5.2999999999999999e-02 7.2430339739695651e+00 3.3486053059902345e+00 -3.2062281433669728e+00 1 0 1
91 3 2 -1.2680000000000000e-01 6.3258996664595060e+00 -1.1072331822880905e+00 -2.0657761350267836e+00 0 0 0
89 3 2 -1.2680000000000000e-01 7.6888750716824283e+00 -1.1914075606657777e+00 -2.1950496361874374e+00 0 0 0
93 3 2 1.7000000000000001e-01 5.6466787362467024e+00 -1.3293117917816477e+00 -8.9794330600818639e-01 0 0 0
1333 41 1 -2.7000000000000002e-01 1.4269091882183393e+01 1.4440066865721679e+01 3.0630362055032139e+00 1 1 -1
361 11 5 1.2680000000000000e-01 1.4748822223827396e+01 -7.4830308768635700e-01 -4.9758383831928947e+00 0 0 1
2669 81 2 -1.2680000000000000e-01 1.2491443105092916e+01 1.3473236116575514e+01 1.4542495826459464e-01 -1 0 0
3618 109 2 -1.2680000000000000e-01 4.9013713621581640e+00 4.2660125759611418e+00 2.2289622471818644e+00 0 0 0
2675 81 2 0.0000000000000000e+00 1.3607377034126600e+01 1.1814719638889629e+01 -3.2271993738924625e+00 -1 0 0
102 3 5 1.2680000000000000e-01 8.4134413338115674e+00 -1.5535352762345687e+00 1.1076835680298069e+00 0 0 0
1956 59 7 -5.0000000000000000e-01 4.1500775198144240e+00 -9.6105762192174082e-01 2.4845598148400265e+00 0 0 1
3607 109 3 0.0000000000000000e+00 6.6867659166565421e+00 2.7374422316177580e+00 3.2636849083440942e+00 0 0 0
2689 81 5 1.2680000000000000e-01 9.5220853304997384e+00 1.1034112886185079e+01 -6.5169263701372382e-01 -1 0 0
357 11 2 1.7000000000000001e-01 1.4702202562983505e+01 1.4711179507913759e+00 2.9794106589311866e+00 0 0 1
86 3 5 5.2999999999999999e-02 9.9266733167290990e+00 8.1920430636478647e-01 -8.6690809457429785e-01 0 0 0
104 3 5 1.2680000000000000e-01 6.0516014282709403e+00 -1.5539311146760413e+00 1.1749808302606093e+00 0 0 0
3226 97 5 1.2680000000000000e-01 9.2667295702763557e+00 1.9562250660684399e+00 -3.6258814744551580e+00 1 0 1
3201 97 2 -1.2680000000000000e-01 1.1120329981195233e+01 2.7286801814050432e+00 -4.4646335146947198e+00 1 0 1
83 3 5 5.2999999999999999e-02 1.0238658025284218e+01 -5.5382462409733990e-01 -3.2194122649665173e+00 0 0 0
87 3 5 5.2999999999999999e-02 1.1491005790286879e+01 1.4771133334415953e-01 -7.7445648988979310e-01 0 0 0
81 3 4 -1.5900000000000000e-01 1.0437213767534550e+01 -1.2182782524284419e-01 -4.7061472627431855e-01 0 0 0
88 3 5 5.2999999999999999e-02 1.0362844219462518e+01 -1.7953918610337816e-01 6.5068428816678558e-01 0 0 0
368 11 5 1.2680000000000000e-01 1.3155463435711997e+01 1.4548228414472497e-01 2.2239142890928121e+00 0 0 1
356 11 2 -1.2680000000000000e-01 1.3949934550960805e+01 8.8517643287465919e-01 1.9779125422398831e+00 0 0 1
366 11 5 1.2680000000000000e-01 1.3590251605421976e+01 5.8543368399699336e-01 -1.9433023477533177e-02 0 0 1
3224 97 5 1.2680000000000000e-01 1.1659961797493549e+01 2.3333363704591901e+00 -3.5562880310477056e+00 1 0 1
3203 97 2 -1.2680000000000000e-01 9.7423654318739850e+00 2.5018561165720432e+00 -4.4157299049811680e+00 1 0 1
349 11 5 5.2999999999999999e-02 1.3697174421649255e+01 2.2315530137527779e+00 -1.9570191708765656e+00 0 0 1
354 11 2 -1.2680000000000000e-01 1.4297343672492403e+01 1.0134572935691204e+00 6.8530807800405402e-01 0 0 1
3603 109 2 -1.2680000000000000e-01 9.6110235068923675e+00 3.2309073221608897e+00 9.6792352030332685e-01 0 0 0
79 3 3 0.0000000000000000e+00 1.0002219172258840e+01 -1.4060596327802501e+00 -1.1556806448361217e+00 0 0 0
344 11 4 -1.5900000000000000e-01 1.4674705376829110e+01 2.7573588296962321e+00 -1.9117876206673889e+00 0 0 1
80 3 4 -1.5900000000000000e-01 1.0593515891443419e+01 -1.3734784290086175e+00 -2.5887725483034263e+00 0 0 0
3601 109 2 1.7000000000000001e-01 1.0678154511093885e+01 3.6337619605437843e+00 1.7611055239385114e+00 0 0 0
3602 109 2 -1.2680000000000000e-01 1.0421151232218392e+01 3.6307246875530201e+00 3.1341818671103727e+00 0 0 0
3626 109 5 1.2680000000000000e-01 9.8080928675774537e+00 3.1655147285840939e+00 -9.3801424828775737e-02 0 0 0
2702 81 5 5.2999999999999999e-02 9.6183227401440394e+00 7.7609589081282433e+00 -4.4191585626457925e+00 -1 0 0
3367 101 5 5.2999999999999999e-02 1.0136075784993913e+01 -7.3822469862432860e-01 3.3966042948969744e+00 -1 1 0
796 24 5 1.2680000000000000e-01 1.0963827100670478e+01 1.4845393151092487e+01 -2.3849445094722337e+00 1 0 0
2681 81 5 5.2999999999999999e-02 1.2687952894627660e+01 1.4516021207893335e+01 -3.3526986426729333e+00 -1 0 0
2671 81 2 0.0000000000000000e+00 1.2538705408275096e+01 1.2737129518507764e+01 -1.0319625512819350e+00 -1 0 0
85 3 5 5.2999999999999999e-02 1.1719851433840052e+01 -1.3402827137316051e+00 -2.5645919748654746e+00 0 0 0
2698 81 1 -1.4999999999999999e-01 1.1531918338993018e+01 8.1268376108560592e+00 -5.1647513019481428e+00 -1 0 0
3298 100 9 -4.5060000000000000e-01 -2.9416573406633173e-02 6.2927364992285746e+00 2.1779569202453599e+00 2 0 1
2900 87 5 1.2680000000000000e-01 4.0837205262127485e-01 5.9219861600491051e+00 -4.3576568046433826e+00 0 0 1
3592 108 5 1.2680000000000000e-01 -2.4322458349226528e-01 4.6665178159134371e+00 -2.8343312628687740e+00 0 0 0
3297 100 8 4.2409999999999998e-01 1.8223360656706644e-01 5.4018709711706911e+00 1.8449233437292500e+00 2 0 1
2888 87 2 -1.2680000000000000e-01 1.1684891542064366e+00 6.6939439351294627e+00 -4.1323934880457767e+00 0 0 1
2886 87 2 -1.2680000000000000e-01 8.9762438812531142e-01 7.4979392736600108e+00 -3.0488887323705414e+00 0 0 1
2878 87 2 0.0000000000000000e+00 1.7198727505717160e+00 8.5881131809689766e+00 -2.6646254050002223e+00 0 0 1
2898 87 5 1.2680000000000000e-01 1.0812250678137847e-02 7.3022466769028256e+00 -2.4604053741147198e+00 0 0 1
2881 87 5 5.2999999999999999e-02 8.9271849045006846e-01 7.8043913192422263e+00 -6.0034702321813495e-02 0 0 1
2876 87 4 -1.5900000000000000e-01 1.6974220701315947e+00 8.4955610665534991e+00 -2.7293119996158061e-01 0 0 1
1160 35 5 1.2680000000000000e-01 -2.1173085473221849e+00 7.7802883375463789e+00 3.5142979208698105e-01 1 1 1
2880 87 5 5.2999999999999999e-02 2.6456229269075044e+00 7.9242364184412732e+00 -4.5269432333947784e-01 0 0 1
2889 87 2 1.7000000000000001e-01 2.2088685883241870e+00 6.9671172089295030e+00 -4.9542786977925566e+00 0 0 1
2885 87 2 -1.2680000000000000e-01 2.8964923628911579e+00 8.7516590176022504e+00 -3.4443069145159368e+00 0 0 1
2679 81 5 5.2999999999999999e-02 1.4489985501061025e+01 1.4537014102920921e+01 -3.1941270847449466e+00 -1 0 0
2879 87 5 5.2999999999999999e-02 1.9896366399137544e+00 8.9842477558700331e+00 6.7260251580677333e-01 0 0 1
3324 100 5 1.2680000000000000e-01 -2.0743536002427807e+00 4.4908486851791576e+00 2.3919421532074021e+00 2 0 1
2887 87 2 -1.2680000000000000e-01 3.1088431189554000e+00 7.9468117895467376e+00 -4.5142120150738307e+00 0 0 1
1162 35 5 1.2680000000000000e-01 -2.3169428870524178e+00 5.7707227261194216e+00 -9.3862465647774418e-01 1 1 1
3632 109 5 1.2680000000000000e-01 3.2885275496354871e+00 5.4708200452342499e+00 1.5560596055228728e+00 0 0 0
2875 87 3 0.0000000000000000e+00 1.3632119713145316e+00 9.4777673775483215e+00 -1.4726441285703125e+00 0 0 1
2725 82 1 -2.7000000000000002e-01 1.0254606197178209e+01 1.0855772648571733e+01 2.8554542059868684e+00 -1 0 0
833 25 5 1.2680000000000000e-01 6.4429412352807613e+00 1.5034922664413589e+01 3.2902184426339462e+00 1 0 0
2899 87 5 1.2680000000000000e-01 4.0157113244057037e+00 8.0568019539380078e+00 -5.1077499115141451e+00 0 0 1
3227 97 5 1.2680000000000000e-01 7.7389177814207901e+00 5.3464672673789533e+00 -4.4304199728462343e+00 1 0 1
3620 109 2 -1.2680000000000000e-01 3.7720945079499404e+00 4.4800699149650658e+00 1.4226247854498746e+00 0 0 0
1976 60 2 0.0000000000000000e+00 6.8661208163210841e+00 7.3762854034803009e+00 7.7808221850037063e-01 0 0 1
1978 60 5 5.2999999999999999e-02 5.1726916855219578e+00 5.7993445611701944e+00 -5.8771171764473840e-01 0 0 1
1984 60 2 -1.2680000000000000e-01 7.9557528074891053e+00 7.1036224551269935e+00 1.6486908844352741e+00 0 0 1
1974 60 4 -1.5900000000000000e-01 6.2302921728933249e+00 5.7305301815150944e+00 -8.8363224404511864e-01 0 0 1
1977 60 5 5.2999999999999999e-02 6.2191129492739261e+00 5.2981586946359602e+00 -1.9026787963782081e+00 0 0 1
1979 60 5 5.2999999999999999e-02 6.7768873047606277e+00 5.0382549876243257e+00 -2.0766968444396525e-01 0 0 1
1973 60 3 0.0000000000000000e+00 6.9181868640751709e+00 7.0791663521157542e+00 -7.0586677820584587e-01 0 0 1
1983 60 2 -1.2680000000000000e-01 5.7960174784693734e+00 7.9994606632816474e+00 1.4425286816204723e+00 0 0 1
1972 60 2 0.0000000000000000e+00 8.3361171840552490e+00 7.0082841415624166e+00 -1.1185832265625320e+00 0 0 1
1994 60 5 1.2680000000000000e-01 8.2805713263452692e+00 4.8854224389914336e+00 -1.8685682056645798e+00 0 0 1
1975 60 4 -1.5900000000000000e-01 6.3666104144769644e+00 8.2261201466252292e+00 -1.5498641285756554e+00 0 0 1
1982 60 5 5.2999999999999999e-02 6.6693992882530200e+00 8.1793082443803211e+00 -2.6180223955620217e+00 0 0 1
1981 60 5 5.2999999999999999e-02 5.2828352223993544e+00 8.3201357669683649e+00 -1.5730623619971711e+00 0 0 1
1996 60 5 1.2680000000000000e-01 8.8782082485741078e+00 6.6132003451389458e+00 1.2415130516413790e+00 0 0 1
1995 60 5 1.2680000000000000e-01 4.9090424208808674e+00 8.2639331495849362e+00 9.0686015252925034e-01 0 0 1
3630 109 5 1.2680000000000000e-01 5.1339723974982867e+00 5.1558750936963076e+00 2.8951414305692817e+00 0 0 0
1980 60 5 5.2999999999999999e-02 6.7089078209709889e+00 9.2032495900119002e+00 -1.1032820602889357e+00 0 0 1
1986 60 2 -1.2680000000000000e-01 7.9972502198409732e+00 7.4070136566139766e+00 2.9861240779612785e+00 0 0 1
1985 60 2 -1.2680000000000000e-01 5.7680665102343465e+00 8.1632007447777841e+00 2.7897545182651187e+00 0 0 1
2897 87 5 1.2680000000000000e-01 3.6684282080460062e+00 9.4944496056588825e+00 -3.2675608895726693e+00 0 0 1
1993 60 5 1.2680000000000000e-01 8.8985003109737324e+00 8.9134584479429879e+00 -3.0899361680489146e-01 0 0 1
1971 60 2 -1.2680000000000000e-01 8.9072023328448875e+00 5.8369297470967165e+00 -1.6737547020413652e+00 0 0 1
2692 81 5 1.2680000000000000e-01 1.4181451101010389e+01 1.0148055957546774e+01 -1.8398072393108655e+00 -1 0 0
1775 54 4 -1.5900000000000000e-01 -1.3132273167968684e+00 -1.7056478499970820e+00 2.8639223164890599e+00 1 0 1
3600 109 1 -2.7000000000000002e-01 1.1906773910296069e+01 4.0046335485841720e+00 1.2505909163660123e+00 0 0 0
1970 60 2 -1.2680000000000000e-01 9.2660093762335620e+00 7.9949428323700964e+00 -7.6181229868639333e-01 0 0 1
2694 81 5 1.2680000000000000e-01 1.4135224718619082e+01 8.4611398390254884e+00 -3.2482188673686418e+00 -1 0 0
1992 60 5 1.2680000000000000e-01 1.0583772289503246e+01 4.7753194936263466e+00 -2.5142679435264466e+00 0 0 1
1969 60 2 -1.2680000000000000e-01 1.0230442822998878e+01 5.7209540256347289e+00 -2.0406796975012647e+00 0 0 1
3665 110 5 1.2680000000000000e-01 1.3239669214191800e+01 7.9746014216665468e+00 4.5623218535223636e-01 0 0 0
3657 110 7 -5.0000000000000000e-01 1.1512882520463181e+01 6.1541268471823720e+00 1.5909838515119810e+00 0 0 0
3255 98 7 -5.0000000000000000e-01 1.3173411482515025e+01 5.1027627071878872e+00 -3.9748036355096490e+00 1 0 1
1966 60 9 -4.5060000000000000e-01 1.2451067993796599e+01 6.6429756725530265e+00 -1.7953326246512449e+00 0 0 1
1965 60 8 4.2409999999999998e-01 1.2706916744290474e+01 6.2624187468191774e+00 -2.6417223946824140e+00 0 0 1
1968 60 2 -1.2680000000000000e-01 1.0618927576238667e+01 7.8463365336492803e+00 -9.8047721905076746e-01 0 0 1
1967 60 2 2.6499999999999999e-02 1.1139576422584939e+01 6.7254448848774313e+00 -1.6745171539573491e+00 0 0 1
3655 110 1 -2.7000000000000002e-01 1.3611491163081769e+01 5.3936458329999937e+00 1.1352868978966546e+00 0 0 0
3656 110 6 6.9999999999999996e-01 1.2315128219331092e+01 5.2619931168561020e+00 1.3679628123898868e+00 0 0 0
3654 110 2 1.7000000000000001e-01 1.4219424584364120e+01 6.4838919453171808e+00 1.7202799702125688e+00 0 0 0
3653 110 2 -1.2680000000000000e-01 1.3978251926328550e+01 7.7830877398497016e+00 1.2595363909787940e+00 0 0 0
2734 82 5 1.2680000000000000e-01 1.1161025248837969e+01 8.7106842675824030e+00 2.5046853977675636e+00 -1 0 0
1991 60 5 1.2680000000000000e-01 1.1281062924189406e+01 8.5837553111827471e+00 -6.3407033987393135e-01 0 0 1
3651 110 2 -1.2680000000000000e-01 1.4623892035106302e+01 8.8263203011671685e+00 1.9123740858618761e+00 0 0 0
348 11 5 5.2999999999999999e-02 1.4443088284443526e+01 3.6607508810502467e+00 -1.3516770385625476e+00 0 0 1
2684 81 2 -1.2680000000000000e-01 1.3891582164754620e+01 9.4444821783391131e+00 -3.7642840919123342e+00 -1 0 0
2282 69 5 5.2999999999999999e-02 3.8012034916772754e+00 1.5364114699682371e+01 -4.2131737270394467e+00 0 0 0
773 24 2 -1.2680000000000000e-01 9.9286643388637401e+00 1.4815361883682584e+01 -2.7416659993964556e+00 1 0 0
2680 81 5 5.2999999999999999e-02 1.3388202211133622e+01 1.5070482440065678e+01 -1.8639064916854831e+00 -1 0 0
2269 69 2 1.7000000000000001e-01 -3.6443534332956773e-02 1.5209973859949873e+01 -6.8530044709954341e-01 0 0 0
3582 108 5 5.2999999999999999e-02 3.3622052834035689e+00 2.2441435323131036e+00 -5.2752854064103820e+00 0 0 0
2893 87 5 1.2680000000000000e-01 -2.3510403935237636e+00 1.0768817047858338e+01 -3.8689373057452059e+00 0 0 1
2275 69 3 0.0000000000000000e+00 1.8887005820464631e+00 1.4402713857501848e+01 -4.4839376627964667e+00 0 0 0
2279 69 5 5.2999999999999999e-02 1.8966730934650884e+00 1.2200381716584600e+01 -4.6744409726075347e+00 0 0 0
2871 87 2 -1.2680000000000000e-01 -2.0218049341624789e+00 1.0788383686701494e+01 -4.7137433670413947e-01 0 0 1
2276 69 4 -1.5900000000000000e-01 2.6015198797094343e+00 1.3052158672113237e+01 -4.6807633485119924e+00 0 0 0
2895 87 5 1.2680000000000000e-01 -1.2522320766688289e-01 1.0030529359818713e+01 -3.6071210177438879e+00 0 0 1
2874 87 2 0.0000000000000000e+00 -5.7351811241513229e-02 9.9813079356114613e+00 -1.4950329145163961e+00 0 0 1
2274 69 2 0.0000000000000000e+00 1.3438019308150735e+00 1.4627692791554701e+01 -3.1220222539241451e+00 0 0 0
2872 87 2 -1.2680000000000000e-01 -6.7533224138048253e-01 1.0172572741355006e+01 -2.6963880495992809e+00 0 0 1
2877 87 4 -1.5900000000000000e-01 2.0957411294370245e+00 1.0821108401904352e+01 -1.4854679647434961e+00 0 0 1
2882 87 5 5.2999999999999999e-02 1.8261049563831002e+00 1.1451637147912299e+01 -5.9624041116015225e-01 0 0 1
2870 87 2 -1.2680000000000000e-01 -1.9784160556814392e+00 1.0645414774451831e+01 -2.8172515214134588e+00 0 0 1
2883 87 5 5.2999999999999999e-02 1.7948697958194848e+00 1.1479685115586737e+01 -2.3143311614986599e+00 0 0 1
2873 87 2 -1.2680000000000000e-01 -7.5604166052030908e-01 1.0247214267415666e+01 -3.0754090162115244e-01 0 0 1
2294 69 5 1.2680000000000000e-01 -1.4558404077894929e+00 1.3672018092283290e+01 -1.3987108219680036e+00 0 0 0
2273 69 2 -1.2680000000000000e-01 1.7645152168519518e-01 1.3957758195912795e+01 -2.7436798345789852e+00 0 0 0
1260 38 5 1.2680000000000000e-01 1.5218475151326714e+00 1.1773008747103177e+01 2.5631340045764079e+00 1 1 1
2896 87 5 1.2680000000000000e-01 -3.7068682122074348e-01 9.9217109132165930e+00 6.3856667245051280e-01 0 0 1
2296 69 5 1.2680000000000000e-01 -2.2145887933114361e-01 1.3201740634218538e+01 -3.4556669125534323e+00 0 0 0
2325 70 7 -5.0000000000000000e-01 -3.5429743254744483e-01 1.3590280105645661e+01 1.4392721294014053e+00 0 0 0
2271 69 2 -1.2680000000000000e-01 -5.3354092021715172e-01 1.4264739911948105e+01 -1.5613516069395197e+00 0 0 0
2280 69 5 5.2999999999999999e-02 3.3178765729378479e+00 1.2832916717696088e+01 -3.8653206501023463e+00 0 0 0
1245 38 5 5.2999999999999999e-02 2.7302928346429609e+00 1.2323155778517007e+01 9.6749876913954125e-01 1 1 1
100 3 5 1.2680000000000000e-01 1.2393489116191132e+01 -1.5938522133679771e+00 2.1456067437607301e-01 0 0 0
3254 98 6 6.9999999999999996e-01 1.3744398684052314e+01 4.4808780332896916e+00 -4.8335906424560404e+00 1 0 1
3299 100 2 2.6499999999999999e-02 -1.0724254548332997e+00 6.3297509542097021e+00 3.0217193467550811e+00 2 0 1
2665 81 1 -2.7000000000000002e-01 9.2599555547095278e+00 1.2362038703778802e+01 1.6234616158231947e+00 -1 0 0
2682 81 2 -1.2680000000000000e-01 1.3946220814497625e+01 1.0494687175942165e+01 -2.8627978794742663e+00 -1 0 0
2683 81 2 -1.2680000000000000e-01 1.3347171694940009e+01 1.1977846574376267e+01 -4.5953719570089051e+00 -1 0 0
94 3 1 -2.7000000000000002e-01 4.2617603274809657e+00 -1.2729774253575656e+00 -5.7960752153034445e-01 0 0 0
90 3 2 -1.2680000000000000e-01 7.8597173074270632e+00 -1.4282304449226331e+00 1.6926365890691034e-01 0 0 0
779 24 4 -1.5900000000000000e-01 6.2876520949043861e+00 1.2131076198512478e+01 -4.9213866102196260e+00 1 0 0
2884 87 5 5.2999999999999999e-02 3.1925668697237746e+00 1.0764920335952059e+01 -1.5230202160658233e+00 0 0 1
775 24 2 -1.2680000000000000e-01 9.4007825465368064e+00 1.3614641832380066e+01 -3.2618733803024571e+00 1 0 0
1246 38 5 5.2999999999999999e-02 3.6673124778026005e+00 1.0886433447837939e+01 1.1628745842924140e+00 1 1 1
1241 38 4 -1.5900000000000000e-01 3.7516480051769299e+00 1.1969205772305655e+01 1.2081367960465399e+00 1 1 1
1243 38 2 0.0000000000000000e+00 3.7585760540598812e+00 1.3889965189708310e+01 2.6928274527397158e+00 1 1 1
786 24 5 5.2999999999999999e-02 7.2929719912156088e+00 1.0218593271118262e+01 -3.6150139524067120e+00 1 0 0
1250 38 2 -1.2680000000000000e-01 4.1642138457230615e+00 1.4720265041045771e+01 1.6265366445431499e+00 1 1 1
1248 38 5 5.2999999999999999e-02 6.1429078625552371e+00 1.2764945116781432e+01 1.9037710600338587e+00 1 1 1
1262 38 5 1.2680000000000000e-01 4.8879750650215907e+00 1.4353106135235809e+01 9.0521693067768083e-01 1 1 1
1244 38 5 5.2999999999999999e-02 4.4606535110100651e+00 1.2287356819294832e+01 4.0083836458993011e-01 1 1 1
799 24 5 1.2680000000000000e-01 6.0705673889321830e+00 1.4283796299198364e+01 -3.2918108910458543e+00 1 0 0
787 24 5 5.2999999999999999e-02 7.6031844669820163e+00 1.1480347267418804e+01 -2.3126624675997349e+00 1 0 0
776 24 2 -1.2680000000000000e-01 7.1577688506092692e+00 1.4464213313544764e+01 -3.1584171079323951e+00 1 0 0
777 24 2 0.0000000000000000e+00 8.0439170408163125e+00 1.3476708973480074e+01 -3.5388789744301854e+00 1 0 0
778 24 3 0.0000000000000000e+00 7.6976197585702888e+00 1.2237782405537972e+01 -4.3202716547940101e+00 1 0 0
783 24 5 5.2999999999999999e-02 5.5471382149190838e+00 1.2007186805344530e+01 -4.1652521004506742e+00 1 0 0
780 24 4 -1.5900000000000000e-01 7.9198448476850842e+00 1.1070739994427070e+01 -3.3117197042620705e+00 1 0 0
1240 38 3 0.0000000000000000e+00 4.0953750145065637e+00 1.2414167225981307e+01 2.6388692196763466e+00 1 1 1
1242 38 4 -1.5900000000000000e-01 5.6169295350366628e+00 1.2319651326737098e+01 2.7473844852711036e+00 1 1 1
785 24 5 5.2999999999999999e-02 8.9521873960581573e+00 1.0681573707605724e+01 -3.2724189111873150e+00 1 0 0
2323 70 1 -2.7000000000000002e-01 -1.4066838045593348e+00 1.5255103891119010e+01 2.4903555766967775e+00 0 0 0
2668 81 2 -1.2680000000000000e-01 1.0350218595914972e+01 1.1772368581623171e+01 -4.0918303959295210e-01 -1 0 0
2690 81 5 1.2680000000000000e-01 1.3238486680352288e+01 1.4275527936496513e+01 3.1251722228622991e-01 -1 0 0
1249 38 5 5.2999999999999999e-02 5.9274815636023117e+00 1.1268871023030245e+01 2.8164472265284921e+00 1 1 1