ITEM: TIMESTEP
0
ITEM: NUMBER OF ATOMS
3996
ITEM: BOX BOUNDS pp pp pp
-2.5534439202245385e+00 3.2452806374319607e+01
-2.0605115820370234e+00 3.2945738690064580e+01
-5.3229271193405632e+00 2.9683323141342150e+01
ITEM: ATOMS id type x y z vx vy vz 
3570 2 0.839987 1.54254 -2.09185 0.00334606 0.00682365 0.00393058 
3593 5 0.875774 0.777197 -1.26662 0.022175 -0.0186722 0.0276279 
3572 2 1.09587 1.15682 -3.3961 0.00308668 -0.00388173 -0.00603053 
3568 2 0.401015 2.8665 -1.87456 0.0112973 -0.00356248 -0.00133167 
1776 4 -0.384098 0.361726 1.9344 -5.4027e-05 -0.00202104 -0.00232004 
1774 3 -1.63476 -0.49235 1.99027 -0.00341852 -0.000227212 -0.0108999 
1781 5 -0.675109 1.39635 1.67046 -0.0202969 -0.0149667 0.0140109 
3595 5 1.49351 0.136917 -3.5256 0.0157436 -0.0209769 0.0113359 
3571 2 0.487906 3.28057 -4.2079 0.00405269 0.00079887 0.00378325 
1783 5 0.150768 0.328788 2.88593 0.00905196 -0.0116587 -0.0100235 
3573 2 1.04348 2.04583 -4.49586 -0.00302264 -0.000527934 -0.00237956 
1777 2 -2.04968 -0.777516 0.528547 -0.00442684 0.00475638 -0.00165943 
3622 1 2.23777 3.71963 -0.341593 -0.00548499 -0.00363056 -0.000669455 
1785 2 -1.99598 0.244638 -0.420083 0.00661827 0.00725449 0.00273004 
1797 5 -1.88099 1.26242 -0.0570971 -0.0165314 -0.0109964 0.00742163 
1782 5 0.403186 -0.0117038 1.2379 -0.0124613 0.0036776 0.0193952 
3567 1 0.0425713 3.34834 -0.657421 -0.00205608 0.00244502 -0.000887193 
3569 2 0.208731 3.69238 -2.95934 0.000395576 0.00111774 -0.00180834 
3623 6 1.02223 3.59896 0.228071 -0.00182664 -0.00518858 -0.0030916 
3624 7 0.746557 3.83767 1.37592 -0.00087448 0.0011643 -0.000802781 
3594 5 0.362759 3.95538 -5.05769 -0.0143026 0.00138479 0.00806516 
1964 5 2.89017 1.13218 2.90645 0.0100585 0.00068144 0.0214896 
3621 2 3.30754 3.52416 0.539291 0.00620485 0.000418474 0.000888021 
1799 5 -2.3399 0.908831 -2.30863 0.00666866 -0.0115312 0.0102775 
1787 2 -2.37163 0.00977161 -1.71074 0.00499767 0.00816287 -0.00408522 
3631 5 3.74244 1.45779 -0.232685 0.0146933 0.00525004 -0.0186415 
3619 2 3.97282 2.29937 0.485605 -0.00352025 -0.00291903 -0.00508287 
3610 2 5.52433 3.01649 2.32161 -0.00231216 -0.0023752 0.000482082 
3617 2 5.05785 2.08182 1.37364 0.00426965 -0.00171855 -0.00345727 
3629 5 5.61487 1.17758 1.23379 0.025059 -0.00347897 -0.00503084 
3210 5 5.76023 2.6789 -3.91171 0.00904513 0.0205234 0.0103061 
103 5 5.72779 -0.750017 -2.92687 0.0111469 -0.0163465 0.00672505 
93 2 5.64668 -1.32931 -0.897943 0.000747615 0.000950706 0.000529701 
3618 2 4.90137 4.26601 2.22896 0.00468918 0.00470397 0.00169117 
1956 7 4.15008 -0.961058 2.48456 -0.00275453 0.000693022 0.00015395 
104 5 6.0516 -1.55393 1.17498 -0.013062 0.00171084 0.0162627 
3298 9 -0.0294166 6.29274 2.17796 -0.0050667 0.00749919 -0.0029289 
2900 5 0.408372 5.92199 -4.35766 -0.00359862 -0.00289398 0.00615494 
3592 5 -0.243225 4.66652 -2.83433 0.00386468 -0.00351226 -0.00520276 
3297 8 0.182234 5.40187 1.84492 -0.00250565 0.00142484 -0.0112649 
3324 5 -2.07435 4.49085 2.39194 0.00545798 0.013703 -0.0233973 
1162 5 -2.31694 5.77072 -0.938625 -0.0324961 -0.0232886 -0.0183405 
3632 5 3.28853 5.47082 1.55606 0.00197149 0.00853942 -0.0182514 
3620 2 3.77209 4.48007 1.42262 0.00158208 0.00278424 0.00405839 
1978 5 5.17269 5.79934 -0.587712 0.0135801 0.00540973 0.00459135 
3630 5 5.13397 5.15588 2.89514 -0.0135819 0.00178905 0.00451317 
1775 4 -1.31323 -1.70565 2.86392 0.00101339 0.00632768 -0.00971771 
3582 5 3.36221 2.24414 -5.27529 -0.014499 -0.0146496 -0.00840509 
3299 2 -1.07243 6.32975 3.02172 -0.00769756 -0.004682 -0.00255651 
94 1 4.26176 -1.27298 -0.579608 -0.00116481 0.00764609 -0.000326637 
1955 6 3.35523 -1.76675 2.85677 -0.00148519 -0.00179794 -0.00186129 
3301 2 -2.031 5.32416 3.07246 0.00212699 0.00607362 0.0013083 
96 7 2.07553 -1.25724 -0.89319 -0.000654079 0.000115411 -0.00564227 
95 6 3.20511 -1.59866 -1.2617 -0.00354174 0.00664391 -0.000202977 
1784 2 -2.33669 -2.03215 0.0432292 -0.00139207 -0.00186883 -0.00190114 
1949 2 1.70254 0.569698 6.59631 -0.00269504 0.00434917 -0.00750353 
1961 5 1.37294 0.387201 7.62626 -0.0131888 -0.00453928 0.0318988 
1951 2 1.88423 -0.549934 5.74252 0.000654217 -0.00134383 -0.00433589 
1942 2 1.73635 1.81515 6.05418 9.60649e-05 0.00535615 -0.00136888 
1939 3 1.31521 3.06697 6.81397 -0.00483445 0.00279207 0.00408065 
2626 5 -0.443537 -0.709647 8.83555 0.0175362 -0.0098959 0.00517707 
1950 2 2.23386 1.96708 4.76027 0.00468977 0.000102817 -0.00206251 
1941 4 1.3675 2.79449 8.29141 -0.00260283 0.0014551 -0.00476812 
1945 5 -0.806719 2.52666 6.48341 -0.0157598 -0.00327473 -0.0124844 
1947 5 2.38401 2.66866 8.66232 -0.0152709 -0.00116288 0.0308953 
1948 5 0.721519 2.00686 8.60004 -0.023451 0.000542926 0.0294721 
1953 2 2.33566 -0.402394 4.4344 -0.00156293 0.000942418 -0.000178889 
1940 4 -0.120804 3.31111 6.27926 -0.00237307 0.000478085 0.000777631 
1943 5 -0.0420932 3.32078 5.17889 -0.000757912 0.0170906 0.0182244 
2615 2 -1.63015 2.09638 10.4205 -0.00209976 -0.00188602 -0.0056375 
1279 5 3.35456 3.29258 11.273 -0.00345933 -0.000131866 -0.00644192 
1952 2 2.53063 0.893962 3.92334 -0.00199045 0.00197343 0.00083869 
2613 5 -1.38855 0.924505 7.74354 0.00549852 -0.00704295 0.00393865 
2616 2 -2.20658 0.0321054 11.4808 -0.00903617 -0.00167231 -0.000254056 
1962 5 2.31343 2.98708 4.31451 -0.0102937 -0.000908416 -0.00427085 
1946 5 0.90631 3.7223 8.71509 -0.00409732 -0.00589517 0.0227908 
2627 5 -1.75028 2.7949 9.54616 0.0258243 -0.0101234 -0.00653577 
1963 5 1.67808 -1.5416 6.16471 -0.0058936 -0.00547905 0.00610026 
1772 2 -2.33783 1.2009 3.75992 -0.00580831 0.00333262 -0.00248032 
2629 5 -0.466408 3.45538 11.5244 0.0129041 -0.0206123 0.0186178 
2617 2 -1.01882 2.52774 11.6136 0.00754873 -0.00118814 0.00291963 
3614 5 5.81859 0.887658 3.89881 -0.0252246 -0.00847696 -0.0135839 
335 5 4.50331 0.995136 6.76083 0.0124916 0.00194892 0.00476472 
323 2 5.26434 0.675742 7.50662 -0.00166938 0.00126893 0.00617624 
333 5 6.12339 2.6292 7.31424 0.00416273 0.00194513 -0.013385 
324 2 5.27277 -0.58609 8.06629 0.0050451 -0.00259761 -0.00320278 
325 1 4.18385 -1.42511 7.84506 0.00411823 -0.00540132 -0.00231786 
3612 5 5.18217 3.45709 4.70198 -0.0200643 -0.0010607 0.0112288 
1960 5 3.91156 3.39352 7.60621 6.97246e-05 0.019899 -0.00159368 
2604 2 -2.53912 -1.24834 9.04404 -0.000371901 -0.00713176 0.00546874 
1938 2 2.27958 4.1918 6.48963 0.00246862 0.000401953 0.00102565 
1944 5 -0.58424 4.27166 6.59072 -0.00192656 0.0016017 0.00864113 
1295 5 1.88198 5.16266 10.7044 -0.0215138 0.0103978 0.000332555 
1936 2 1.84844 5.25827 5.65899 -0.00143581 -0.000883862 0.0046794 
1297 5 0.808654 6.49895 9.17169 0.00891076 0.000805339 0.00665952 
1283 2 2.48233 5.97319 10.3192 0.000395294 -0.00532544 -0.00398033 
1959 5 0.879144 5.35478 5.19653 7.55706e-05 0.0127578 0.0115553 
1934 2 2.781 6.21823 5.289 -0.00101192 -0.000755239 0.0050003 
1276 2 3.8046 6.05565 10.7314 4.40122e-05 -0.000545277 0.00322674 
1937 2 3.63969 4.16792 6.92977 0.000688741 0.000211484 0.0060206 
1280 5 5.63924 4.16689 10.3788 0.0183197 -0.0103392 0.0177898 
1275 4 5.76032 4.72924 11.3399 -0.0053642 -0.000621071 0.00271184 
1958 5 5.5618 5.18553 6.92477 -0.00389305 -0.0139543 -0.0097995 
1933 2 4.07584 6.25803 5.82749 -0.0018623 -0.00171259 -0.007364 
1935 2 4.51563 5.22499 6.61674 -0.00239006 -0.00160063 -0.00861892 
2813 5 -1.92239 5.44022 10.9285 -0.00470262 0.00799627 0.00575126 
2608 2 -2.21472 0.833677 10.3304 0.000251967 0.00266145 0.0010774 
1795 5 -1.285 1.46648 4.02287 -0.0205174 -0.00908889 0.00935771 
2603 2 -1.22857 -1.52918 8.93057 0.00104364 0.00786911 0.00530878 
1954 1 2.46548 -1.55776 3.7562 0.00248448 -0.00852034 -0.00701084 
1778 5 -0.879322 -1.53466 3.84325 0.01231 0.00546308 -0.0111029 
1273 3 4.40408 5.21052 11.8569 -0.00320026 0.00196144 -0.00194978 
2607 4 -2.46783 0.875248 7.84152 -0.000438583 -0.000520832 0.00340031 
1274 4 3.57265 3.93952 12.1535 -0.00479679 -0.00101222 -0.00143132 
2621 6 0.703664 2.10783 14.2894 0.00448859 -0.00405886 -0.00261484 
2565 1 1.09946 2.79816 15.3348 0.00183718 0.0044745 -0.00478931 
2620 1 -0.5478 2.19778 14.0289 -0.00190871 -0.000171243 0.004982 
2566 2 2.37748 2.75383 15.8641 -0.000639416 0.00319943 0.00203828 
2622 7 1.46611 1.45967 13.6197 -0.00193445 0.00406547 0.00672902 
679 5 0.0759672 -0.975788 16.3598 0.00868253 -0.0116277 -0.000131162 
2590 5 2.59579 0.600529 16.1714 0.0155544 0.00179925 0.00647643 
2472 2 -1.43553 2.65008 18.9924 -0.00201265 -0.00275493 0.00200957 
2473 3 -1.13044 1.20087 19.2673 -0.00118337 -0.00547145 -0.00811681 
2482 5 0.435708 0.93884 17.6477 0.0131683 0.008834 0.00763151 
2630 5 -1.75713 -0.167462 13.5302 -0.00604243 -0.00767406 -0.000254752 
2475 4 0.248476 0.737533 18.7206 -0.00203397 -0.000421223 -0.00507635 
2495 5 -1.90093 1.38674 16.7589 -0.00468226 -0.00483615 0.00359363 
2567 2 3.04332 1.61562 16.3235 0.00185004 0.00149881 -0.000101619 
2494 5 0.640146 3.26479 18.5931 0.00964952 -0.00756094 -0.00279063 
2483 2 -2.44002 0.552791 17.2727 0.000938808 -0.00217567 -0.00326311 
2480 5 0.238677 -0.391817 18.7974 -0.00468255 -0.0195421 -0.00127711 
2481 5 1.15056 1.09986 19.2579 -0.0095058 0.00800827 -0.00240482 
2632 9 3.69394 0.339802 12.9985 -0.000811334 0.00264355 -0.00391216 
2619 2 -1.09393 1.78146 12.7832 0.00119678 0.00341374 0.00156795 
2476 2 -2.15822 0.355432 18.6405 0.00162171 -0.002328 -0.0022858 
2618 2 -1.70985 0.531785 12.6836 -0.000249286 -0.000971104 -0.00553953 
682 5 2.3656 -1.87025 16.6203 0.0129016 -0.00608264 0.0128432 
2471 2 -0.430227 3.49382 18.5742 -0.00349074 -0.00540819 0.00347965 
2474 4 -1.18204 0.98292 20.7574 -0.00835628 0.00442781 0.00291787 
2569 2 4.32492 1.60503 16.8487 -0.00548425 -0.00343149 0.00371645 
2592 5 4.6265 0.590626 17.0778 0.00482753 -0.0117056 -0.00893002 
2571 2 5.01116 2.78971 16.9455 0.00157349 0.00118646 -0.001861 
2580 5 5.22813 3.55334 19.1901 0.00992595 0.0217553 0.00179338 
1325 5 4.5287 0.388512 20.6077 -0.00270703 -0.00432092 -0.0152026 
2657 5 5.92734 -0.896635 12.433 0.00218859 -0.0178246 0.0103764 
1277 5 4.19273 3.31652 12.8409 -0.0120521 -0.000474042 0.000909379 
2568 2 3.1245 3.93993 15.9536 0.00079237 0.002057 0.00228661 
2830 5 -1.84727 5.49964 13.4181 8.74636e-05 0.0029276 0.00414285 
2807 2 -1.33635 6.43414 13.6994 0.00327 6.2645e-05 -0.00375294 
2467 2 -1.9855 5.3434 18.3458 0.000302725 0.00895012 -0.00129284 
1329 5 1.91426 4.37885 20.4253 -0.00294227 -0.00879796 -0.0066051 
2828 5 -0.722017 5.61656 15.5559 0.0128227 0.000323736 -0.0197364 
2805 2 -0.680867 6.51203 14.8997 -0.00344419 0.0037615 -0.000188757 
2469 2 -0.737342 4.76547 18.1908 -0.00584501 -0.00457726 0.00317576 
2492 5 0.117056 5.37637 17.826 -0.0231836 0.00452797 0.0209321 
2591 5 2.78657 4.9033 15.5781 -0.00973892 0.0126669 0.00430551 
1331 5 2.19325 5.67366 18.4027 0.0194327 0.00354505 -0.00107132 
1317 2 2.79884 5.0351 20.3895 0.00456146 -0.0015201 -0.00475819 
1319 2 2.95006 5.80945 19.237 0.00313378 -0.000148201 0.000503089 
2466 1 -2.2476 6.68522 18.0775 -0.00658656 0.00421032 0.00290876 
1271 2 3.52394 6.66171 13.665 0.0059746 0.00136986 -1.04947e-05 
2570 2 4.39356 3.93732 16.4369 -0.00172389 -0.000313062 -0.000167654 
2593 5 4.93762 4.87013 16.5447 0.0225311 0.00351031 0.00726031 
1272 2 4.62501 5.98236 13.1505 0.0022392 0.000560039 -0.00343961 
1270 2 5.78472 6.16614 13.8483 -0.00242715 0.00488115 0.00131661 
678 5 0.0688147 -1.75916 14.7177 -0.0145275 -0.0153515 -0.00365905 
2631 8 2.80952 0.769917 13.0527 0.00874558 0.00124608 -0.00307464 
2658 5 1.62387 -1.22396 12.566 0.00531098 0.0181635 -0.0303963 
1278 5 2.62185 4.14508 12.6745 0.0205648 0.0180482 -0.00872593 
2634 2 5.01484 -1.50135 12.2412 -5.28368e-05 -0.000223948 -0.00461506 
2635 2 2.63013 -1.68564 12.2832 0.00738648 0.00588355 -0.000973603 
2633 2 3.77443 -0.922751 12.481 -0.00198177 0.00430394 0.00250502 
675 4 -0.211823 -1.89753 15.7529 -0.000621025 -0.00283177 -0.00176826 
680 5 -1.30086 -1.99181 15.9388 -0.0202499 0.0157239 0.025673 
3577 2 0.454155 1.98068 28.0739 -0.00187792 0.00172806 -0.00498426 
3584 2 -0.756321 1.38597 28.1657 -0.00728718 0.00116186 0.00291722 
3585 2 0.696696 2.75137 26.9704 -0.00476163 0.00218279 0.000774529 
3588 2 -1.5406 2.39654 26.1287 -0.00312046 -0.00194028 0.00343591 
3578 5 1.61183 -0.282674 27.9618 -0.0177861 -0.00488379 -0.00170844 
3587 2 -0.268551 2.9587 26.0425 0.0038572 -0.00738008 0.00340274 
1305 2 2.04951 2.24277 22.8649 0.00247183 -0.0106213 -0.000781974 
1326 5 1.01424 0.37284 23.1715 -0.00234514 -0.00725134 0.00592803 
1303 2 1.84608 0.871795 22.6718 0.00607409 -0.00071743 -0.00360049 
1299 8 1.55926 -1.35351 21.8289 -0.00495488 -0.0118708 0.00344046 
1328 5 1.3142 2.80489 23.4732 0.00457032 0.0117078 0.0283175 
3574 3 1.43242 1.61989 29.1334 -0.00386509 -7.87675e-05 0.00341995 
3576 4 2.69061 2.48425 28.8681 0.0014582 -0.00121489 0.000549281 
3597 5 1.70759 3.12748 26.7928 -0.01981 -0.00983808 0.0107347 
3596 5 -0.875946 0.684944 29.027 0.000991387 -0.0243808 0.0159662 
3586 2 -1.77175 1.60536 27.2506 0.0043352 0.000557307 0.00669577 
3575 4 1.68816 0.112011 28.9908 -0.00281737 -0.00178554 -0.000619954 
702 5 -1.64678 -0.92698 24.3197 -0.0103032 0.00343564 -0.000528405 
2479 5 -0.556655 1.70383 21.2791 0.000845434 0.0155612 0.00119714 
1306 2 3.16637 2.92988 22.3698 0.00262763 -0.00110551 -0.00201445 
3599 5 -0.00399352 3.59458 25.16 -0.00334634 -0.0246283 0.00475996 
2477 5 -0.904185 -0.0268021 20.9731 0.0147825 -0.00507628 0.0159919 
3581 5 3.306 2.2432 27.9677 -0.00703048 0.00230364 -0.00674561 
699 7 -0.19119 -1.78007 22.3852 0.00232005 -0.0041794 0.00346439 
3583 5 2.49329 3.55228 28.9254 -0.0193641 -0.00445592 0.00277219 
1300 9 2.4452 -1.08322 21.4176 0.00189936 -0.00482507 0.00197737 
1301 2 2.71929 0.150657 21.8318 -0.00283305 -0.000285069 -4.24058e-06 
3212 5 6.00012 1.23767 28.8421 -0.00372068 0.00475428 -0.0085412 
1485 5 3.57192 -1.00911 26.4826 -0.0123362 -0.0108251 -0.00194529 
1302 2 3.7963 0.838108 21.2667 0.0011673 0.00304143 0.00645426 
1304 2 3.98668 2.19222 21.535 0.00132922 0.00165548 0.00386807 
1488 2 5.94212 0.199867 25.3843 -0.00123917 -0.00366402 0.00132613 
1500 5 5.10967 0.628188 25.9548 -0.00105909 0.00398995 0.0125397 
3228 5 5.75867 2.99875 27.5237 -0.0114523 -0.0135311 0.00534233 
1486 5 4.79282 -0.813924 27.7148 0.00208722 -0.0180056 -0.0038503 
1479 4 4.2948 -1.5413 27.0877 -0.00923136 -0.00243662 0.00289573 
1327 5 4.8763 2.65399 21.0896 -0.0187139 -0.0179812 -0.029222 
1498 5 3.64067 -1.74061 24.1303 -0.0149902 -0.000283575 -0.00360928 
3580 5 2.68328 -0.125137 29.4521 0.013959 -0.0178846 0.0110279 
1166 5 -2.28434 3.82694 29.0356 -0.00690324 0.0156103 -0.00469978 
701 4 -1.39083 -1.92516 24.7342 -0.00159861 -0.00589078 -0.00136909 
1314 5 2.36837 4.73637 24.4111 0.00534035 -0.0046573 -0.00883608 
1315 5 1.55975 5.05837 22.8992 -0.0113211 0.00314272 0.0382512 
1309 4 2.54913 5.10838 23.43 -0.000946843 -0.000143808 0.0020018 
1127 5 -1.44225 5.40968 23.703 -0.0276903 -0.0119293 0.0206803 
1157 6 -1.29887 5.95945 27.4227 -0.000616719 0.00411249 0.00501957 
1158 7 -0.362655 5.53912 28.0407 -0.00389689 -0.00626197 0.00102372 
1101 1 -1.21662 6.22646 26.1385 -0.000215405 0.0031544 -0.000595192 
2892 7 2.48471 6.19598 26.7253 0.00291736 -0.00198482 -0.00452703 
2890 1 2.52107 6.17922 28.9182 -0.00686145 0.00548288 0.0014161 
1316 5 2.92851 6.13125 23.4092 -0.0223638 0.0142299 -0.00228277 
1104 2 -2.13955 6.21247 23.9743 -0.00306855 -0.000696424 -0.00725413 
1102 2 -2.12015 6.68269 25.2702 -0.00463573 -0.000470646 -0.00136374 
1307 3 3.55634 4.28957 22.6976 0.00241075 -0.0013613 0.00398887 
3216 2 6.06769 3.9892 27.9467 0.00203106 -0.00335029 -0.000334385 
1310 2 3.70605 5.11146 21.4446 0.00536092 0.00342459 -0.0057046 
1318 2 4.81174 5.93554 21.2638 -0.00139721 0.00282312 0.000669355 
1311 5 4.45833 3.49411 24.4382 -0.0130251 0.010655 0.0149072 
1330 5 5.61754 5.99394 22.0331 0.00286308 -0.0138639 -0.00134223 
1313 5 5.67374 3.79841 23.1023 0.0152489 -0.0251815 -0.0305819 
1308 4 4.76906 4.16688 23.614 0.000982742 0.00129069 -0.00351489 
1312 5 4.95558 5.16975 24.009 -0.00706514 -0.00915841 -0.00169424 
3219 2 5.85486 6.38946 27.9533 -0.00115222 -0.00213776 -0.00194091 
3230 5 4.7563 5.09515 26.6637 0.0195027 -0.00351857 0.00735362 
3218 2 5.47425 5.15596 27.4583 0.0032594 0.00584113 -0.00212619 
703 5 -0.317615 -2.00763 24.8995 0.00734103 -0.0198094 0.000287158 
1156 1 -2.5263 6.26291 27.9365 -0.00321904 -0.00354166 -0.00129222 
3589 1 -2.39238 2.50087 25.0312 0.00207731 -0.000692772 0.00173148 
2478 5 -2.22335 1.11927 21.092 -0.0293809 0.0121379 -0.0244393 
3579 5 0.936464 -0.485726 29.5305 -0.00574145 0.0074489 -0.00245082 
2888 2 1.16849 6.69394 -4.13239 -0.00492268 0.00463529 -0.00023222 
2886 2 0.897624 7.49794 -3.04889 0.000959945 0.000393474 -0.00142438 
2878 2 1.71987 8.58811 -2.66463 0.00290618 0.00847961 -0.00579483 
2898 5 0.0108123 7.30225 -2.46041 -0.00663784 0.0041753 0.0127899 
2881 5 0.892718 7.80439 -0.0600347 0.00321973 -0.0176583 0.0203903 
2876 4 1.69742 8.49556 -0.272931 -0.00340642 0.00368091 0.00155651 
1160 5 -2.11731 7.78029 0.35143 -0.00522024 0.0119906 0.0160933 
2880 5 2.64562 7.92424 -0.452694 0.00606509 -0.0119592 -0.0222367 
2889 2 2.20887 6.96712 -4.95428 -0.00583157 -0.00260659 -0.000624601 
2885 2 2.89649 8.75166 -3.44431 -0.00194968 -0.000556603 0.00139146 
2879 5 1.98964 8.98425 0.672603 -0.000124128 0.00926618 -0.00556101 
2887 2 3.10884 7.94681 -4.51421 0.00192431 -0.00168076 -0.00351044 
2875 3 1.36321 9.47777 -1.47264 0.0056025 -0.00291961 -0.00501533 
2899 5 4.01571 8.0568 -5.10775 -0.00504994 -0.0198293 0.00302076 
1983 2 5.79602 7.99946 1.44253 0.00389928 0.00100524 0.00170857 
1981 5 5.28284 8.32014 -1.57306 0.00319077 0.0234888 -0.0145298 
1995 5 4.90904 8.26393 0.90686 -0.00270179 -0.000626827 -0.00653007 
1985 2 5.76807 8.1632 2.78975 0.00370308 -0.00018793 0.00313504 
2897 5 3.66843 9.49445 -3.26756 0.00217053 -0.0122243 0.0149893 
2282 5 3.8012 15.3641 -4.21317 0.00790122 -0.021592 -0.0154866 
2269 2 -0.0364435 15.21 -0.6853 0.00181346 0.000915984 0.00369421 
2893 5 -2.35104 10.7688 -3.86894 -0.00705395 -0.0149736 -0.0194329 
2275 3 1.8887 14.4027 -4.48394 -0.00198648 0.000404806 0.00117039 
2279 5 1.89667 12.2004 -4.67444 0.000502811 0.00765535 -0.011746 
2871 2 -2.0218 10.7884 -0.471374 0.00198869 -0.000146663 0.000488718 
2276 4 2.60152 13.0522 -4.68076 0.00637064 0.00579139 0.000643407 
2895 5 -0.125223 10.0305 -3.60712 -0.0204773 0.0004666 0.00194617 
2874 2 -0.0573518 9.98131 -1.49503 -0.00342247 0.000343954 0.00377611 
2274 2 1.3438 14.6277 -3.12202 0.000277168 -0.00266422 0.00289902 
2872 2 -0.675332 10.1726 -2.69639 0.00167498 0.00627319 -0.000539467 
2877 4 2.09574 10.8211 -1.48547 0.000467203 0.00133821 0.000599806 
2882 5 1.8261 11.4516 -0.59624 0.00559538 -0.000132344 -0.00360836 
2870 2 -1.97842 10.6454 -2.81725 -0.000892364 -0.000167948 -0.004132 
2883 5 1.79487 11.4797 -2.31433 -0.019045 -0.0179283 -0.0121067 
2873 2 -0.756042 10.2472 -0.307541 0.000199079 0.00561303 0.00435862 
2294 5 -1.45584 13.672 -1.39871 0.0135855 -0.0051486 0.0150703 
2273 2 0.176452 13.9578 -2.74368 -0.00146252 0.000668716 -0.00192677 
1260 5 1.52185 11.773 2.56313 0.0108866 0.0058732 -0.0177077 
2896 5 -0.370687 9.92171 0.638567 0.0107243 0.0118185 -0.00252731 
2296 5 -0.221459 13.2017 -3.45567 -0.0265123 0.00457276 -0.00594526 
2325 7 -0.354297 13.5903 1.43927 0.0015729 -0.00772937 -0.000190119 
2271 2 -0.533541 14.2647 -1.56135 0.00134679 -0.00245578 -0.000688808 
2280 5 3.31788 12.8329 -3.86532 -0.00205263 -0.0221483 0.00923113 
1245 5 2.73029 12.3232 0.967499 -0.00509232 0.0120453 0.0144976 
2884 5 3.19257 10.7649 -1.52302 -0.0129395 -0.00462768 -0.0229512 
1246 5 3.66731 10.8864 1.16287 0.0112718 0.0152463 -0.00448398 
1241 4 3.75165 11.9692 1.20814 -0.00372744 -0.00768934 0.00344345 
1243 2 3.75858 13.89 2.69283 0.00119476 0.00182218 -0.0010373 
1250 2 4.16421 14.7203 1.62654 -0.00281313 0.00185354 0.00301543 
1248 5 6.14291 12.7649 1.90377 0.00706041 -0.000490142 0.0145512 
1262 5 4.88798 14.3531 0.905217 0.000905395 -0.0217897 -0.0183045 
1244 5 4.46065 12.2874 0.400838 -0.0151744 0.00867871 0.00754624 
799 5 6.07057 14.2838 -3.29181 0.0152919 0.00601449 0.0056144 
783 5 5.54714 12.0072 -4.16525 0.00930147 -0.000349222 0.00751264 
1240 3 4.09538 12.4142 2.63887 -0.00179052 0.00418578 -0.00252453 
1242 4 5.61693 12.3197 2.74738 0.00335961 -0.00844016 -0.00233415 
2323 1 -1.40668 15.2551 2.49036 0.00290042 -0.00266155 0.00187637 
1249 5 5.92748 11.2689 2.81645 -0.00767266 0.0119975 0.0195717 
1997 5 4.88429 8.63135 3.18579 0.00581415 0.002857 0.0108506 
2324 6 -0.737492 14.7168 1.49223 -0.00562 0.00417684 -0.00407845 
2894 5 -2.44584 11.158 0.447906 0.00333253 0.0145673 0.00176141 
2809 3 -2.19831 7.50575 11.6082 0.00371103 0.00357732 -0.00506529 
3325 5 -2.08223 8.10375 5.70846 -0.00472339 -0.00512076 0.0219512 
1239 2 3.40076 11.5788 3.70242 -0.00278079 0.000500582 -0.0149478 
2322 2 -1.81744 14.4528 3.56626 -0.00438008 -0.00467923 0.00319595 
1251 2 2.96816 14.4504 3.66258 0.00425908 0.00048038 0.000902037 
2310 4 -2.08038 10.7872 6.80932 0.000264288 0.00163688 -0.00379842 
1957 5 2.4751 7.05337 4.66071 0.00290032 0.0270218 -0.010908 
2315 5 -2.53957 9.9198 7.38076 -0.00528036 0.000660443 -0.0173666 
2811 4 -1.10613 7.82603 10.5997 -0.00331381 0.00301628 -0.00355008 
1285 2 1.85423 6.71982 9.33881 0.000611034 -0.00333525 -0.000963094 
1288 1 2.24628 8.41298 7.58986 -0.00210548 0.00511025 0.00103881 
2818 5 -0.240888 7.2433 10.8502 0.0120552 -0.00942446 0.012386 
1287 2 2.60926 7.65401 8.64606 -0.000697941 -0.00210925 -0.00229295 
2816 5 -0.867612 8.92012 10.6489 -0.011852 0.00169412 -0.0149281 
1290 7 0.0558269 8.41102 7.99665 -0.00299143 0.00092009 0.00332963 
1289 6 0.992871 8.73559 7.32427 0.000192597 -0.00187839 -0.001873 
1233 1 0.854756 9.50503 6.28497 -0.000459432 8.67889e-05 -0.00235064 
3302 2 -2.06138 7.29142 4.98414 -0.0011143 0.00132678 -0.00168018 
3323 5 -0.257608 8.12154 3.9743 -0.00495043 0.0102567 0.0229273 
3300 2 -1.04059 7.34799 4.01493 -0.00375015 0.00383281 0.000467044 
2817 5 -1.40314 7.57454 9.61612 -0.00311615 -0.0304456 -0.0149244 
3714 5 0.0231675 15.4118 9.80545 -0.0111522 -0.0229491 0.00601505 
1286 2 3.90945 7.84914 9.09768 -0.00447524 0.00740037 -0.00042855 
1298 5 4.50538 8.59787 8.65184 -0.0117382 -0.00223551 0.0134913 
1284 2 4.50963 7.09203 10.0975 -0.00240121 -0.00121708 -0.00306009 
1296 5 5.50234 7.35817 10.4495 0.00780319 0.00131661 0.00690315 
1932 1 4.89834 7.32873 5.38886 -0.00291529 0.000409222 -0.000692174 
1989 6 5.99949 7.75435 5.906 0.00379908 -0.00415737 -0.00395183 
2317 5 -1.98595 10.4692 5.72214 -0.0192521 0.00792876 -0.0177521 
1258 5 0.135659 10.7535 4.13739 -0.00267333 -0.0050866 0.0217847 
2333 5 0.107619 14.6089 4.58234 0.022189 -0.00659347 0.00646993 
2329 5 -1.6856 11.0361 9.33953 0.0240309 -0.0057229 0.00703725 
2316 5 -1.03399 10.9806 7.12415 0.00178603 -0.0340315 0.0222015 
1234 2 1.74934 10.1178 5.44255 0.00111162 -0.00292903 -0.00249382 
1235 2 1.21155 10.7465 4.29795 -0.00064467 -0.000793803 -0.00302044 
2304 2 -1.85411 12.6991 10.6224 0.00564974 -0.00635224 -0.00227856 
3716 2 1.73027 13.6836 11.3669 0.00282148 -0.00332909 -0.00167939 
2319 2 -1.38705 13.4491 5.70359 0.00255942 -0.0100614 0.00770493 
2331 5 -0.663802 13.2247 6.51949 -0.0097285 -0.00133309 -0.016275 
3715 5 -0.311031 13.9131 8.7344 -0.0172904 0.00287229 0.0121223 
3709 2 1.82955 13.2593 10.0531 -0.00704349 -0.00160572 0.000808154 
3706 3 1.76 14.278 8.97101 -0.00726177 -0.000841239 -0.00276935 
3717 2 2.09158 11.8785 9.94728 -0.00111585 -0.00470007 0.00193867 
3719 2 2.28276 11.0514 11.0569 0.000141512 -0.00188965 -0.000549657 
2302 2 -2.22997 14.0363 10.8103 -0.00308742 -0.00149888 0.000221208 
2321 2 -0.914465 14.1305 4.59005 0.00254648 -0.00183667 -0.000244089 
2327 5 -1.22188 12.195 11.4192 -0.00819916 0.0217665 0.00200546 
3711 5 1.42786 12.8545 7.3393 -0.00791386 0.00830318 -0.00734227 
2301 1 -1.79101 14.6893 11.9472 -0.00794764 -0.003979 -0.00290205 
1236 2 3.09268 10.376 5.6904 -0.00396653 -0.000194085 -0.00748267 
2306 2 -2.09152 12.1061 9.40143 -0.00123695 -0.0013173 -0.00100548 
3708 4 0.349519 14.7721 8.91575 0.00414496 0.00543424 0.00510693 
3729 5 2.1586 11.311 8.95994 -0.0148672 0.00412915 -0.0220298 
3731 5 2.54466 9.98553 10.8281 -0.000613537 -0.0036366 -0.000745635 
3707 4 2.12287 13.6509 7.60301 -0.00377241 0.00175606 0.00709557 
1263 5 2.46852 13.829 4.43635 0.0155559 0.0180478 0.00536528 
3710 5 2.13926 14.3996 6.80278 -0.0119763 -0.00742026 0.0159125 
3728 5 1.39377 14.6882 11.4873 0.00529839 0.00317079 -0.00244826 
1259 5 3.63071 9.90073 6.47237 -0.0125921 -0.028779 0.0165919 
1247 5 5.93882 12.9317 3.59767 0.0073848 0.000336457 -0.0192293 
3671 2 6.08707 10.0962 11.7042 0.00238916 0.00100586 0.00537231 
3703 2 4.08863 15.0608 9.38388 0.00704849 -0.00252795 0.00568494 
3712 5 3.19304 13.2422 7.55448 0.0107831 -0.00347174 0.0140267 
3726 5 4.44885 14.0065 9.37869 0.000158254 -0.0098134 0.00923225 
3678 5 5.31781 11.3022 8.68635 -0.00904365 -0.00420906 -0.00430047 
1238 2 3.91469 11.1353 4.88791 0.00347387 -0.00522337 -0.000840036 
1261 5 4.96756 11.3626 5.2226 0.0048361 -0.0166014 0.00555081 
1237 2 2.03679 11.4094 3.43133 0.00146563 0.00169084 0.0011318 
3705 2 2.74431 15.3775 9.21763 -0.000737015 0.00445123 -0.00608357 
1294 5 2.5099 6.71127 13.1517 0.00550594 -0.0188848 -0.028792 
2803 2 -0.0570476 7.68617 15.3604 -0.000469153 -0.00450783 -0.00320108 
2802 1 0.516856 7.68745 16.5962 0.00435879 -0.00514911 -0.00118882 
2806 2 -0.78047 8.7239 13.2443 0.0050538 0.00148243 0.00217603 
2858 6 0.282492 8.63677 17.5014 0.00118552 -0.00410412 -0.00352778 
2804 2 -0.153034 8.78289 14.4708 -0.000425595 0.00117142 -0.00178964 
2857 1 0.919076 8.38145 18.6315 0.00148033 0.00181785 0.00145303 
1292 5 2.71403 8.17451 14.966 -0.00318768 0.0159482 -0.00751866 
2856 2 0.612204 9.05757 19.8016 -0.00679609 0.0018629 0.0044194 
2859 7 -0.468407 9.50316 17.3315 0.00127781 0.00129813 -0.00161899 
2808 2 -1.4059 7.52752 12.8558 -0.00191055 0.00281575 0.000454889 
3668 2 5.54339 12.6499 12.6504 -0.000423238 -0.000933021 0.00165385 
2829 5 -0.777427 9.65422 12.6524 0.0106077 0.0093324 -0.00327958 
2827 5 0.33317 9.7253 14.773 -0.0144135 -0.00206326 -0.0211704 
1269 2 3.60996 7.56093 14.7181 0.00239517 -0.00130029 0.00234516 
1321 2 4.03501 6.7097 19.0794 -0.00184096 -0.00902015 0.00155192 
1320 2 4.90725 6.73401 20.141 0.00118884 -0.00180232 -0.00540134 
1322 1 4.2192 7.33175 17.8616 -0.000317048 -0.00296599 -0.000767482 
1267 2 4.76956 7.78927 15.4493 0.00327401 0.00167205 -0.00356703 
1323 6 4.55788 8.57368 17.6746 0.000114395 0.000478235 0.00118984 
1268 2 5.86885 7.09033 14.882 -0.00570936 0.00307216 -0.00298929 
1266 1 4.91574 8.79207 16.4166 -0.00472732 0.00215558 -0.00395225 
1332 5 5.80411 7.39998 20.1113 0.00521351 0.000718671 -0.00818605 
1324 7 4.62042 9.42781 18.5391 0.00367819 -0.000391925 0.00488536 
3692 5 4.8888 9.49748 13.387 -0.0146004 -0.0205587 -0.0126839 
1409 2 3.18912 15.1828 19.8652 0.00396005 -0.00284493 -0.00330549 
1420 5 1.1289 15.1095 16.8238 -0.0101074 -0.0115902 -0.0100996 
2854 2 0.911176 10.4076 19.9415 0.00457348 -0.00148824 -0.00828427 
3859 5 -1.8505 11.576 17.8425 -0.00642602 -0.0018166 0.0182101 
2866 5 1.55286 10.8222 19.1517 -0.0262023 -0.00717616 0.0118129 
3845 5 -0.878241 14.1063 16.5618 0.00754323 -0.0156486 -0.00963816 
3847 5 -0.804562 12.4127 16.0559 0.0107781 -0.0193793 0.0123123 
3840 4 -1.18872 13.3825 15.7664 -0.000616165 0.00189435 0.00287773 
3730 5 1.8405 13.3691 13.4425 -0.0136572 -0.0132492 0.0066472 
3846 5 -0.787379 13.6308 14.8131 0.018806 -0.00657997 0.0204985 
3721 1 2.43261 10.6756 13.4297 -0.00043722 0.00153997 -0.0016624 
3723 7 2.43173 10.9679 15.6275 0.00222908 0.00419989 0.000377918 
1410 2 3.26914 15.0669 18.4813 -0.00093269 0.000332652 -0.00228988 
3718 2 1.9036 12.8774 12.475 8.95092e-05 -0.00353197 -0.00307149 
3691 5 5.20106 13.7203 12.8569 -0.00489689 0.00537624 0.00647041 
3720 2 2.22444 11.516 12.3726 -0.00169659 -0.00112461 0.00590418 
1407 2 3.32466 14.0854 20.6991 0.00207645 -0.0030659 0.000448322 
3722 6 2.96993 11.1127 14.5585 0.00332907 -0.00188677 -0.00241311 
1408 2 3.60866 13.8897 17.9206 0.00358682 5.8082e-05 -0.000840659 
1431 5 3.72943 13.7308 16.8418 0.000539332 -0.00390151 -0.0104426 
3669 2 5.39252 10.3047 12.8462 0.00069985 -0.000786195 -0.00504725 
1406 2 3.83813 12.8149 18.7398 -0.00342697 -0.000144976 -0.00147664 
1429 5 4.09927 11.9028 18.2086 -0.00132186 -0.00264992 0.0133553 
3666 1 4.17699 11.6527 14.4095 0.000934041 -7.82066e-05 0.00312212 
3667 2 4.98765 11.5571 13.3252 -0.00434688 -0.000445293 -0.00279666 
1461 7 5.90833 11.3889 20.6533 -0.00228382 0.00153045 -0.00174383 
1405 2 3.69236 12.8363 20.1719 0.000534963 0.00441692 -0.00212066 
2855 2 -0.0992517 8.48977 20.8479 0.00108623 -0.00156066 -0.00243935 
2867 5 -0.291531 7.39272 20.8602 0.0175829 0.00922045 0.00349071 
3885 2 -2.35915 15.1157 22.2589 0.000285016 -0.00257652 0.00214223 
1430 5 3.16161 14.1985 21.7362 -0.0152909 -0.00157213 -0.00355385 
782 5 6.07998 13.0564 29.5431 -0.0415852 0.00418659 -0.015196 
2281 5 3.27638 13.0476 29.3857 -0.00446318 -0.0119142 0.00851154 
2835 1 1.74788 7.9736 27.8741 -0.000130608 0.00012463 -0.00160217 
2891 6 2.24312 6.77123 27.7498 -0.00711874 -0.00541858 -0.000852247 
2865 5 -0.799192 8.61762 22.8475 -0.0151793 -0.0122982 -0.000769892 
2836 2 1.17948 8.67431 26.8428 -0.00130988 -0.00176276 -0.00202527 
2837 2 1.8742 8.87891 25.6429 -0.00239423 0.00102204 -0.00454743 
2853 2 -0.349267 9.15514 22.0119 5.42454e-05 -0.00291151 0.000569801 
2861 5 -0.531217 9.29066 27.8786 0.017758 0.00349775 0.00595524 
2838 2 -0.0193222 9.34017 26.9067 0.000751666 0.000126845 0.000793199 
2839 2 1.43014 9.68436 24.6068 -0.00338294 -0.00329604 -0.00474739 
2840 2 -0.549139 10.1037 25.8829 -0.00106372 -0.00149627 -0.00248491 
2860 5 2.84308 8.36839 25.3267 0.00862865 0.00197911 0.00742052 
3220 1 5.18741 7.46867 27.3438 -0.00137758 -0.00180162 -0.00473461 
3221 6 5.56884 8.70731 27.3267 -0.0035629 -0.00472115 0.00054666 